# vtk DataFile Version 5.1
vtk output
ASCII
DATASET POLYDATA
POINTS 17568 float
0.317288 -0.397295 0.364448 0.313121 -0.40468 0.424303 0.289638 -0.411984 0.363044 
0.287063 -0.417912 0.42339 0.289638 -0.411984 0.363044 0.313121 -0.40468 0.424303 
0.345683 -0.367458 0.305622 0.341299 -0.375944 0.366232 0.317818 -0.392423 0.305485 
0.317288 -0.397295 0.364448 0.317818 -0.392423 0.305485 0.341299 -0.375944 0.366232 
0.223323 -0.431749 0.300839 0.251544 -0.422435 0.302332 0.23935 -0.43199 0.361842 
0.262332 -0.422664 0.362137 0.23935 -0.43199 0.361842 0.251544 -0.422435 0.302332 
0.289638 -0.411984 0.363044 0.287063 -0.417912 0.42339 0.262332 -0.422664 0.362137 
0.261632 -0.427221 0.422701 0.262332 -0.422664 0.362137 0.287063 -0.417912 0.42339 
0.274846 -0.418754 0.252658 0.231211 -0.430966 0.245486 0.262599 -0.446574 0.214165 
0.2099 -0.457622 0.202318 0.262599 -0.446574 0.214165 0.231211 -0.430966 0.245486 
0.194817 -0.437402 0.239358 0.231211 -0.430966 0.245486 0.223323 -0.431749 0.300839 
0.251544 -0.422435 0.302332 0.223323 -0.431749 0.300839 0.231211 -0.430966 0.245486 
0.350284 -0.364453 0.244783 0.345683 -0.367458 0.305622 0.316601 -0.396416 0.250199 
0.317818 -0.392423 0.305485 0.316601 -0.396416 0.250199 0.345683 -0.367458 0.305622 
0.262599 -0.446574 0.214165 0.312495 -0.42258 0.208415 0.274846 -0.418754 0.252658 
0.316601 -0.396416 0.250199 0.274846 -0.418754 0.252658 0.312495 -0.42258 0.208415 
0.291362 -0.413379 0.536815 0.303426 -0.408222 0.482265 0.320467 -0.390454 0.538527 
0.328162 -0.387696 0.483083 0.320467 -0.390454 0.538527 0.303426 -0.408222 0.482265 
0.275025 -0.421949 0.482067 0.287063 -0.417912 0.42339 0.303426 -0.408222 0.482265 
0.313121 -0.40468 0.424303 0.303426 -0.408222 0.482265 0.287063 -0.417912 0.42339 
0.218649 -0.474853 0.619945 0.236564 -0.444228 0.584476 0.26979 -0.455493 0.624003 
0.280089 -0.425608 0.586435 0.26979 -0.455493 0.624003 0.236564 -0.444228 0.584476 
0.320467 -0.390454 0.538527 0.315111 -0.397679 0.592146 0.291362 -0.413379 0.536815 
0.280089 -0.425608 0.586435 0.291362 -0.413379 0.536815 0.315111 -0.397679 0.592146 
0.156119 -0.458526 0.595789 0.19621 -0.447285 0.538732 0.191143 -0.453861 0.591118 
0.222989 -0.439421 0.53835 0.191143 -0.453861 0.591118 0.19621 -0.447285 0.538732 
0.164011 -0.483033 0.631406 0.191143 -0.453861 0.591118 0.218649 -0.474853 0.619945 
0.236564 -0.444228 0.584476 0.218649 -0.474853 0.619945 0.191143 -0.453861 0.591118 
0.247502 -0.431674 0.481825 0.261632 -0.427221 0.422701 0.275025 -0.421949 0.482067 
0.287063 -0.417912 0.42339 0.275025 -0.421949 0.482067 0.261632 -0.427221 0.422701 
0.19621 -0.447285 0.538732 0.225399 -0.440193 0.480871 0.222989 -0.439421 0.53835 
0.247502 -0.431674 0.481825 0.222989 -0.439421 0.53835 0.225399 -0.440193 0.480871 
0.292915 -0.260195 -0.110308 0.300873 -0.335808 -0.11045 0.23546 -0.269794 -0.12322 
0.240602 -0.341214 -0.117452 0.23546 -0.269794 -0.12322 0.300873 -0.335808 -0.11045 
0.339519 -0.257182 -0.0802831 0.292915 -0.260195 -0.110308 0.328715 -0.192761 -0.0778193 
0.283535 -0.198083 -0.11242 0.328715 -0.192761 -0.0778193 0.292915 -0.260195 -0.110308 
0.173106 -0.230478 -0.142628 0.174532 -0.282877 -0.121531 0.12147 -0.249274 -0.145022 
0.119478 -0.295776 -0.113872 0.12147 -0.249274 -0.145022 0.174532 -0.282877 -0.121531 
0.176383 -0.34915 -0.10631 0.174532 -0.282877 -0.121531 0.240602 -0.341214 -0.117452 
0.23546 -0.269794 -0.12322 0.240602 -0.341214 -0.117452 0.174532 -0.282877 -0.121531 
0.221157 -0.120393 -0.146058 0.224047 -0.163495 -0.142015 0.172014 -0.141551 -0.170002 
0.171621 -0.184999 -0.160037 0.172014 -0.141551 -0.170002 0.224047 -0.163495 -0.142015 
0.12147 -0.249274 -0.145022 0.123113 -0.206388 -0.170045 0.173106 -0.230478 -0.142628 
0.171621 -0.184999 -0.160037 0.173106 -0.230478 -0.142628 0.123113 -0.206388 -0.170045 
0.328715 -0.192761 -0.0778193 0.283535 -0.198083 -0.11242 0.318497 -0.140059 -0.0746981 
0.274851 -0.146856 -0.114171 0.318497 -0.140059 -0.0746981 0.283535 -0.198083 -0.11242 
0.26898 -0.103901 -0.112945 0.274851 -0.146856 -0.114171 0.221157 -0.120393 -0.146058 
0.224047 -0.163495 -0.142015 0.221157 -0.120393 -0.146058 0.274851 -0.146856 -0.114171 
0.269878 -0.0318881 -0.0928838 0.272342 0.00331308 -0.0724007 0.307987 -0.0331195 -0.049691 
0.307808 -0.00318692 -0.0317095 0.307987 -0.0331195 -0.049691 0.272342 0.00331308 -0.0724007 
0.273281 0.0420733 -0.0438498 0.272342 0.00331308 -0.0724007 0.237075 0.0521949 -0.0759725 
0.232462 0.00608204 -0.106821 0.237075 0.0521949 -0.0759725 0.272342 0.00331308 -0.0724007 
0.221157 -0.120393 -0.146058 0.222802 -0.0788504 -0.141507 0.26898 -0.103901 -0.112945 
0.26804 -0.0666021 -0.106124 0.26898 -0.103901 -0.112945 0.222802 -0.0788504 -0.141507 
0.307987 -0.0331195 -0.049691 0.308256 -0.0631453 -0.0619102 0.269878 -0.0318881 -0.0928838 
0.26804 -0.0666021 -0.106124 0.269878 -0.0318881 -0.0928838 0.308256 -0.0631453 -0.0619102 
0.182883 -0.0457092 -0.157469 0.176218 -0.0952439 -0.168768 0.139893 -0.0548182 -0.181103 
0.131964 -0.111136 -0.188613 0.139893 -0.0548182 -0.181103 0.176218 -0.0952439 -0.168768 
0.172014 -0.141551 -0.170002 0.176218 -0.0952439 -0.168768 0.221157 -0.120393 -0.146058 
0.222802 -0.0788504 -0.141507 0.221157 -0.120393 -0.146058 0.176218 -0.0952439 -0.168768 
0.237075 0.0521949 -0.0759725 0.232462 0.00608204 -0.106821 0.199052 0.0623656 -0.105989 
0.190658 0.0074224 -0.137241 0.199052 0.0623656 -0.105989 0.232462 0.00608204 -0.106821 
0.139893 -0.0548182 -0.181103 0.148915 0.00578811 -0.165362 0.182883 -0.0457092 -0.157469 
0.190658 0.0074224 -0.137241 0.182883 -0.0457092 -0.157469 0.148915 0.00578811 -0.165362 
0.263105 -0.289222 0.900577 0.266995 -0.336923 0.904292 0.301492 -0.292885 0.870674 
0.30851 -0.340088 0.875405 0.301492 -0.292885 0.870674 0.266995 -0.336923 0.904292 
0.211816 -0.394732 0.922409 0.26887 -0.396352 0.909752 0.214141 -0.334681 0.919903 
0.266995 -0.336923 0.904292 0.214141 -0.334681 0.919903 0.26887 -0.396352 0.909752 
0.213279 -0.204742 0.922518 0.215216 -0.244729 0.920604 0.253262 -0.209214 0.897882 
0.258195 -0.248301 0.898482 0.253262 -0.209214 0.897882 0.215216 -0.244729 0.920604 
0.301492 -0.292885 0.870674 0.293898 -0.252639 0.867139 0.263105 -0.289222 0.900577 
0.258195 -0.248301 0.898482 0.263105 -0.289222 0.900577 0.293898 -0.252639 0.867139 
0.117499 -0.281642 0.935739 0.164801 -0.284207 0.93026 0.126656 -0.240414 0.945024 
0.169955 -0.242358 0.935335 0.126656 -0.240414 0.945024 0.164801 -0.284207 0.93026 
0.172003 -0.202637 0.93974 0.169955 -0.242358 0.935335 0.213279 -0.204742 0.922518 
0.215216 -0.244729 0.920604 0.213279 -0.204742 0.922518 0.169955 -0.242358 0.935335 
0.214141 -0.334681 0.919903 0.15673 -0.332639 0.924128 0.211816 -0.394732 0.922409 
0.149733 -0.3934 0.920339 0.211816 -0.394732 0.922409 0.15673 -0.332639 0.924128 
0.104904 -0.328487 0.922781 0.15673 -0.332639 0.924128 0.117499 -0.281642 0.935739 
0.164801 -0.284207 0.93026 0.117499 -0.281642 0.935739 0.15673 -0.332639 0.924128 
0.328715 -0.192761 -0.0778193 0.358457 -0.200112 -0.0267162 0.339519 -0.257182 -0.0802831 
0.367895 -0.263853 -0.0306343 0.339519 -0.257182 -0.0802831 0.358457 -0.200112 -0.0267162 
0.385194 -0.351205 0.0306159 0.375987 -0.340814 -0.0337268 0.380901 -0.277243 0.032671 
0.367895 -0.263853 -0.0306343 0.380901 -0.277243 0.032671 0.375987 -0.340814 -0.0337268 
0.369603 -0.166291 0.0406057 0.349444 -0.148083 -0.0217878 0.364968 -0.12541 0.046235 
0.342627 -0.106257 -0.015664 0.364968 -0.12541 0.046235 0.349444 -0.148083 -0.0217878 
0.318497 -0.140059 -0.0746981 0.349444 -0.148083 -0.0217878 0.328715 -0.192761 -0.0778193 
0.358457 -0.200112 -0.0267162 0.328715 -0.192761 -0.0778193 0.349444 -0.148083 -0.0217878 
0.382458 -0.25968 0.176197 0.382253 -0.237542 0.105277 0.385185 -0.214712 0.178025 
0.38088 -0.190046 0.108528 0.385185 -0.214712 0.178025 0.382253 -0.237542 0.105277 
0.364968 -0.12541 0.046235 0.379025 -0.149836 0.112764 0.369603 -0.166291 0.0406057 
0.38088 -0.190046 0.108528 0.369603 -0.166291 0.0406057 0.379025 -0.149836 0.112764 
0.380901 -0.277243 0.032671 0.381399 -0.294389 0.103665 0.385194 -0.351205 0.0306159 
0.379176 -0.364086 0.102343 0.385194 -0.351205 0.0306159 0.381399 -0.294389 0.103665 
0.375596 -0.311145 0.175939 0.381399 -0.294389 0.103665 0.382458 -0.25968 0.176197 
0.382253 -0.237542 0.105277 0.382458 -0.25968 0.176197 0.381399 -0.294389 0.103665 
0.363729 -0.333817 0.306674 0.35769 -0.345276 0.36828 0.345683 -0.367458 0.305622 
0.341299 -0.375944 0.366232 0.345683 -0.367458 0.305622 0.35769 -0.345276 0.36828 
0.351404 -0.354331 0.427814 0.35769 -0.345276 0.36828 0.361147 -0.316624 0.430338 
0.367965 -0.307651 0.370431 0.361147 -0.316624 0.430338 0.35769 -0.345276 0.36828 
0.382458 -0.25968 0.176197 0.379525 -0.278609 0.243679 0.375596 -0.311145 0.175939 
0.369702 -0.323364 0.243084 0.375596 -0.311145 0.175939 0.379525 -0.278609 0.243679 
0.369702 -0.323364 0.243084 0.363729 -0.333817 0.306674 0.350284 -0.364453 0.244783 
0.345683 -0.367458 0.305622 0.350284 -0.364453 0.244783 0.363729 -0.333817 0.306674 
0.380079 -0.252636 0.309953 0.384425 -0.235652 0.245143 0.382575 -0.209764 0.311653 
0.386398 -0.194374 0.247084 0.382575 -0.209764 0.311653 0.384425 -0.235652 0.245143 
0.385185 -0.214712 0.178025 0.384425 -0.235652 0.245143 0.382458 -0.25968 0.176197 
0.379525 -0.278609 0.243679 0.382458 -0.25968 0.176197 0.384425 -0.235652 0.245143 
0.361147 -0.316624 0.430338 0.367965 -0.307651 0.370431 0.366553 -0.273812 0.432936 
0.373629 -0.265433 0.372527 0.366553 -0.273812 0.432936 0.367965 -0.307651 0.370431 
0.382575 -0.209764 0.311653 0.376188 -0.22098 0.374406 0.380079 -0.252636 0.309953 
0.373629 -0.265433 0.372527 0.380079 -0.252636 0.309953 0.376188 -0.22098 0.374406 
0.368668 -0.137134 0.438729 0.375379 -0.132559 0.377674 0.363531 -0.0923241 0.440867 
0.369754 -0.0887861 0.380331 0.363531 -0.0923241 0.440867 0.375379 -0.132559 0.377674 
0.376221 -0.0834201 0.319025 0.365146 -0.0406368 0.324829 0.369754 -0.0887861 0.380331 
[...]
CELL_DATA 5856
FIELD FieldData 1
GroupIds 1 5856 float
0 0 0 0 0 0 0 0 0 
0 0 0 0 0 0 0 0 0 
0 0 0 0 0 0 0 0 0 
0 0 0 0 0 0 0 0 0 
0 0 0 0 0 0 0 0 0 
0 0 0 0 0 0 0 0 0 
0 0 0 0 0 0 0 0 0 
0 0 0 0 0 0 0 0 0 
0 0 0 0 0 0 0 0 0 
0 0 0 0 0 0 0 0 0 
0 0 0 0 0 0 0 0 0 
0 0 0 0 0 0 0 0 0 
0 0 0 0 0 0 0 0 0 
0 0 0 0 0 0 0 0 0 
0 0 0 0 0 0 0 0 0 
0 0 0 0 0 0 0 0 0 
0 0 0 0 0 0 0 0 0 
0 0 0 0 0 0 0 0 0 
0 0 0 0 0 0 0 0 0 
0 0 0 0 0 0 0 0 0 
0 0 0 0 0 0 0 0 0 
0 0 0 0 0 0 0 0 0 
0 0 0 0 0 0 0 0 0 
0 0 0 0 0 0 0 0 0 
0 0 0 0 0 0 0 0 0 
0 0 0 0 0 0 0 0 0 
0 0 0 0 0 0 0 0 0 
0 0 0 0 0 0 0 0 0 
0 0 0 0 0 0 0 0 0 
0 0 0 0 0 0 0 0 0 
0 0 0 0 0 0 0 0 0 
0 0 0 0 0 0 0 0 0 
0 0 0 0 0 0 0 0 0 
0 0 0 0 0 0 0 0 0 
0 0 0 0 0 0 0 0 0 
0 0 0 0 0 0 0 0 0 
0 0 0 0 0 0 0 0 0 
0 0 0 0 0 0 0 0 0 
0 0 0 0 0 0 0 0 0 
0 0 0 0 0 0 0 0 0 
0 0 0 0 0 0 0 0 0 
0 0 0 0 0 0 0 0 0 
0 0 0 0 0 0 0 0 0 
0 0 0 0 0 0 0 0 0 
0 0 0 0 0 0 0 0 0 
0 0 0 0 0 0 0 0 0 
0 0 0 0 0 0 0 0 0 
0 0 0 0 0 0 0 0 0 
0 0 0 0 0 0 0 0 0 
0 0 0 0 0 0 0 0 0 
0 0 0 0 0 0 0 0 0 
0 0 0 0 0 0 0 0 0 
0 0 0 0 0 0 0 0 0 
0 0 0 0 0 0 0 0 0 
0 0 0 0 0 0 0 0 0 
0 0 0 0 0 0 0 0 0 
0 0 0 0 0 0 0 0 0 
0 0 0 0 0 0 0 0 0 
0 0 0 0 0 0 0 0 0 
0 0 0 0 0 0 0 0 0 
0 0 0 0 0 0 0 0 0 
0 0 0 0 0 0 0 0 0 
0 0 0 0 0 0 0 0 0 
0 0 0 0 0 0 0 0 0 
0 0 0 0 0 0 0 0 0 
0 0 0 0 0 0 0 0 0 
0 0 0 0 0 0 0 0 0 
0 0 0 0 0 0 0 0 0 
0 0 0 0 0 0 0 0 0 
0 0 0 0 0 0 0 0 0 
0 0 0 0 0 0 0 0 0 
0 0 0 0 0 0 0 0 0 
0 0 0 0 0 0 0 0 0 
0 0 0 0 0 0 0 0 0 
0 0 0 0 0 0 0 0 0 
0 0 0 0 0 0 0 0 0 
0 0 0 0 0 0 0 0 0 
0 0 0 0 0 0 0 0 0 
0 0 0 0 0 0 0 0 0 
0 0 0 0 0 0 0 0 0 
0 0 0 0 0 0 0 0 0 
0 0 0 0 0 0 0 0 0 
0 0 0 0 0 0 0 0 0 
0 0 0 0 0 0 0 0 0 
0 0 0 0 0 0 0 0 0 
0 0 0 0 0 0 0 0 0 
0 0 0 0 0 0 0 0 0 
0 0 0 0 0 0 0 0 0 
0 0 0 0 0 0 0 0 0 
0 0 0 0 0 0 0 0 0 
0 0 0 0 0 0 0 0 0 
0 0 0 0 0 0 0 0 0 
0 0 0 0 0 0 0 0 0 
0 0 0 0 0 0 0 0 0 
0 0 0 0 0 0 0 0 0 
0 0 0 0 0 0 0 0 0 
0 0 0 0 0 0 0 0 0 
0 0 0 0 0 0 0 0 0 
0 0 0 0 0 0 0 0 0 
0 0 0 0 0 0 0 0 0 
0 0 0 0 0 0 0 0 0 
0 0 0 0 0 0 0 0 0 
0 0 0 0 0 0 0 0 0 
0 0 0 0 0 0 0 0 0 
0 0 0 0 0 0 0 0 0 
0 0 0 0 0 0 0 0 0 
0 0 0 0 0 0 0 0 0 
0 0 0 0 0 0 0 0 0 
0 0 0 0 0 0 0 0 0 
0 0 0 0 0 0 0 0 0 
0 0 0 0 0 0 0 0 0 
0 0 0 0 0 0 0 0 0 
0 0 0 0 0 0 0 0 0 
0 0 0 0 0 0 0 0 0 
0 0 0 0 0 0 0 0 0 
0 0 0 0 0 0 0 0 0 
0 0 0 0 0 0 0 0 0 
0 0 0 0 0 0 0 0 0 
0 0 0 0 0 0 0 0 0 
0 0 0 0 0 0 0 0 0 
0 0 0 0 0 0 0 0 0 
0 0 0 0 0 0 0 0 0 
0 0 0 0 0 0 0 0 0 
0 0 0 0 0 0 0 0 0 
0 0 0 0 0 0 0 0 0 
0 0 0 0 0 0 0 0 0 
0 0 0 0 0 0 0 0 0 
0 0 0 0 0 0 0 0 0 
0 0 0 0 0 0 0 0 0 
0 0 0 0 0 0 0 0 0 
0 0 0 0 0 0 0 0 0 
0 0 0 0 0 0 0 0 0 
0 0 0 0 0 0 0 0 0 
0 0 0 0 0 0 0 0 0 
0 0 0 0 0 0 0 0 0 
0 0 0 0 0 0 0 0 0 
0 0 0 0 0 0 0 0 0 
0 0 0 0 0 0 0 0 0 
0 0 0 0 0 0 0 0 0 
0 0 0 0 0 0 0 0 0 
0 0 0 0 0 0 0 0 0 
0 0 0 0 0 0 0 0 0 
0 0 0 0 0 0 0 0 0 
0 0 0 0 0 0 0 0 0 
0 0 0 0 0 0 0 0 0 
0 0 0 0 0 0 0 0 0 
0 0 0 0 0 0 0 0 0 
0 0 0 0 0 0 0 0 0 
0 0 0 0 0 0 0 0 0 
0 0 0 0 0 0 0 0 0 
0 0 0 0 0 0 0 0 0 
0 0 0 0 0 0 0 0 0 
0 0 0 0 0 0 0 0 0 
0 0 0 0 0 0 0 0 0 
0 0 0 0 0 0 0 0 0 
0 0 0 0 0 0 0 0 0 
0 0 0 0 0 0 0 0 0 
0 0 0 0 0 0 0 0 0 
0 0 0 0 0 0 0 0 0 
0 0 0 0 0 0 0 0 0 
0 0 0 0 0 0 0 0 0 
0 0 0 0 0 0 0 0 0 
0 0 0 0 0 0 0 0 0 
0 0 0 0 0 0 0 0 0 
0 0 0 0 0 0 0 0 0 
0 0 0 0 0 0 0 0 0 
0 0 0 0 0 0 0 0 0 
0 0 0 0 0 0 0 0 0 
0 0 0 0 0 0 0 0 0 
0 0 0 0 0 0 0 0 0 
0 0 0 0 0 0 0 0 0 
0 0 0 0 0 0 0 0 0 
0 0 0 0 0 0 0 0 0 
0 0 0 0 0 0 0 0 0 
0 0 0 0 0 0 0 0 0 
0 0 0 0 0 0 0 0 0 
0 0 0 0 0 0 0 0 0 
0 0 0 0 0 0 0 0 0 
0 0 0 0 0 0 0 0 0 
0 0 0 0 0 0 0 0 0 
0 0 0 0 0 0 0 0 0 
0 0 0 0 0 0 0 0 0 
0 0 0 0 0 0 0 0 0 
0 0 0 0 0 0 0 0 0 
0 0 0 0 0 0 0 0 0 
0 0 0 0 0 0 0 0 0 
0 0 0 0 0 0 0 0 0 
0 0 0 0 0 0 0 0 0 
0 0 0 0 0 0 0 0 0 
0 0 0 0 0 0 0 0 0 
0 0 0 0 0 0 0 0 0 
0 0 0 0 0 0 0 0 0 
0 0 0 0 0 0 0 0 0 
0 0 0 0 0 0 0 0 0 
0 0 0 0 0 0 0 0 0 
0 0 0 0 0 0 0 0 0 
0 0 0 0 0 0 0 0 0 
0 0 0 0 0 0 0 0 0 
0 0 0 0 0 0 0 0 0 
0 0 0 0 0 0 0 0 0 
0 0 0 0 0 0 0 0 0 
0 0 0 0 0 0 0 0 0 
0 0 0 0 0 0 0 0 0 
0 0 0 0 0 0 0 0 0 
0 0 0 0 0 0 0 0 0 
0 0 0 0 0 0 0 0 0 
0 0 0 0 0 0 0 0 0 
0 0 0 0 0 0 0 0 0 
0 0 0 0 0 0 0 0 0 
0 0 0 0 0 0 0 0 0 
0 0 0 0 0 0 0 0 0 
0 0 0 0 0 0 0 0 0 
0 0 0 0 0 0 0 0 0 
0 0 0 0 0 0 0 0 0 
0 0 0 0 0 0 0 0 0 
0 0 0 0 0 0 0 0 0 
0 0 0 0 0 0 0 0 0 
0 0 0 0 0 0 0 0 0 
0 0 0 0 0 0 0 0 0 
0 0 0 0 0 0 0 0 0 
0 0 0 0 0 0 0 0 0 
0 0 0 0 0 0 0 0 0 
0 0 0 0 0 0 0 0 0 
0 0 0 0 0 0 0 0 0 
0 0 0 0 0 0 0 0 0 
0 0 0 0 0 0 0 0 0 
0 0 0 0 0 0 0 0 0 
0 0 0 0 0 0 0 0 0 
0 0 0 0 0 0 0 0 0 
0 0 0 0 0 0 0 0 0 
0 0 0 0 0 0 0 0 0 
0 0 0 0 0 0 0 0 0 
0 0 0 0 0 0 0 0 0 
0 0 0 0 0 0 0 0 0 
0 0 0 0 0 0 0 0 0 
0 0 0 0 0 0 0 0 0 
0 0 0 0 0 0 0 0 0 
0 0 0 0 0 0 0 0 0 
0 0 0 0 0 0 0 0 0 
0 0 0 0 0 0 0 0 0 
0 0 0 0 0 0 0 0 0 
0 0 0 0 0 0 0 0 0 
0 0 0 0 0 0 0 0 0 
0 0 0 0 0 0 0 0 0 
0 0 0 0 0 0 0 0 0 
0 0 0 0 0 0 0 0 0 
0 0 0 0 0 0 0 0 0 
0 0 0 0 0 0 0 0 0 
0 0 0 0 0 0 0 0 0 
0 0 0 0 0 0 0 0 0 
0 0 0 0 0 0 0 0 0 
0 0 0 0 0 0 0 0 0 
0 0 0 0 0 0 0 0 0 
0 0 0 0 0 0 0 0 0 
0 0 0 0 0 0 0 0 0 
0 0 0 0 0 0 0 0 0 
0 0 0 0 0 0 0 0 0 
0 0 0 0 0 0 0 0 0 
0 0 0 0 0 0 0 0 0 
0 0 0 0 0 0 0 0 0 
0 0 0 0 0 0 0 0 0 
0 0 0 0 0 0 0 0 0 
0 0 0 0 0 0 0 0 0 
0 0 0 0 0 0 0 0 0 
0 0 0 0 0 0 0 0 0 
0 0 0 0 0 0 0 0 0 
0 0 0 0 0 0 0 0 0 
0 0 0 0 0 0 0 0 0 
0 0 0 0 0 0 0 0 0 
0 0 0 0 0 0 0 0 0 
0 0 0 0 0 0 0 0 0 
0 0 0 0 0 0 0 0 0 
0 0 0 0 0 0 0 0 0 
0 0 0 0 0 0 0 0 0 
0 0 0 0 0 0 0 0 0 
0 0 0 0 0 0 0 0 0 
0 0 0 0 0 0 0 0 0 
0 0 0 0 0 0 0 0 0 
0 0 0 0 0 0 0 0 0 
0 0 0 0 0 0 0 0 0 
0 0 0 0 0 0 0 0 0 
0 0 0 0 0 0 0 0 0 
0 0 0 0 0 0 0 0 0 
0 0 0 0 0 0 0 0 0 
0 0 0 0 0 0 0 0 0 
0 0 0 0 0 0 0 0 0 
0 0 0 0 0 0 0 0 0 
0 0 0 0 0 0 0 0 0 
0 0 0 0 0 0 0 0 0 
0 0 0 0 0 0 0 0 0 
0 0 0 0 0 0 0 0 0 
0 0 0 0 0 0 0 0 0 
0 0 0 0 0 0 0 0 0 
0 0 0 0 0 0 0 0 0 
0 0 0 0 0 0 0 0 0 
0 0 0 0 0 0 0 0 0 
0 0 0 0 0 0 0 0 0 
0 0 0 0 0 0 0 0 0 
0 0 0 0 0 0 0 0 0 
0 0 0 0 0 0 0 0 0 
0 0 0 0 0 0 0 0 0 
0 0 0 0 0 0 0 0 0 
0 0 0 0 0 0 0 0 0 
0 0 0 0 0 0 0 0 0 
0 0 0 0 0 0 0 0 0 
0 0 0 0 0 0 0 0 0 
0 0 0 0 0 0 0 0 0 
0 0 0 0 0 0 0 0 0 
0 0 0 0 0 0 0 0 0 
0 0 0 0 0 0 0 0 0 
0 0 0 0 0 0 0 0 0 
0 0 0 0 0 0 0 0 0 
0 0 0 0 0 0 0 0 0 
0 0 0 0 0 0 0 0 0 
0 0 0 0 0 0 0 0 0 
0 0 0 0 0 0 0 0 0 
0 0 0 0 0 0 0 0 0 
0 0 0 0 0 0 0 0 0 
0 0 0 0 0 0 0 0 0 
0 0 0 0 0 0 0 0 0 
0 0 0 0 0 0 0 0 0 
0 0 0 0 0 0 0 0 0 
0 0 0 0 0 0 0 0 0 
0 0 0 0 0 0 0 0 0 
0 0 0 0 0 0 0 0 0 
0 0 0 0 0 0 0 0 0 
0 0 0 0 0 0 0 0 0 
0 0 0 0 0 0 0 0 0 
0 0 0 0 0 0 0 0 0 
0 0 0 0 0 0 0 0 0 
0 0 0 0 0 0 0 0 0 
0 0 0 0 0 0 0 0 0 
0 0 0 0 0 0 0 0 0 
0 0 0 0 0 0 0 0 0 
0 0 0 0 0 0 0 0 0 
0 0 0 0 0 0 0 0 0 
0 0 0 0 0 0 0 0 0 
0 0 0 0 0 0 0 0 0 
0 0 0 0 0 0 0 0 0 
0 0 0 0 0 0 0 0 0 
0 0 0 0 0 0 0 0 0 
0 0 0 0 0 0 0 0 0 
0 0 0 0 0 0 0 0 0 
0 0 0 0 0 0 0 0 0 
0 0 0 0 0 0 0 0 0 
0 0 0 0 0 0 0 0 0 
0 0 0 0 0 0 0 0 0 
0 0 0 0 0 0 0 0 0 
0 0 0 0 0 0 0 0 0 
0 0 0 0 0 0 0 0 0 
0 0 0 0 0 0 0 0 0 
0 0 0 0 0 0 0 0 0 
0 0 0 0 0 0 0 0 0 
0 0 0 0 0 0 0 0 0 
0 0 0 0 0 0 0 0 0 
0 0 0 0 0 0 0 0 0 
0 0 0 0 0 0 0 0 0 
0 0 0 0 0 0 0 0 0 
0 0 0 0 0 0 0 0 0 
0 0 0 0 0 0 0 0 0 
0 0 0 0 0 0 0 0 0 
0 0 0 0 0 0 0 0 0 
0 0 0 0 0 0 0 0 0 
0 0 0 0 0 0 0 0 0 
0 0 0 0 0 0 0 0 0 
0 0 0 0 0 0 0 0 0 
0 0 0 0 0 0 0 0 0 
0 0 0 0 0 0 0 0 0 
0 0 0 0 0 0 0 0 0 
0 0 0 0 0 0 0 0 0 
0 0 0 0 0 0 0 0 0 
0 0 0 0 0 0 0 0 0 
0 0 0 0 0 0 0 0 0 
0 0 0 0 0 0 0 0 0 
0 0 0 0 0 0 0 0 0 
0 0 0 0 0 0 0 0 0 
0 0 0 0 0 0 0 0 0 
0 0 0 0 0 0 0 0 0 
0 0 0 0 0 0 0 0 0 
0 0 0 0 0 0 0 0 0 
0 0 0 0 0 0 0 0 0 
0 0 0 0 0 0 0 0 0 
0 0 0 0 0 0 0 0 0 
0 0 0 0 0 0 0 0 0 
0 0 0 0 0 0 0 0 0 
0 0 0 0 0 0 0 0 0 
0 0 0 0 0 0 0 0 0 
0 0 0 0 0 0 0 0 0 
0 0 0 0 0 0 0 0 0 
0 0 0 0 0 0 0 0 0 
0 0 0 0 0 0 0 0 0 
0 0 0 0 0 0 0 0 0 
0 0 0 0 0 0 0 0 0 
0 0 0 0 0 0 0 0 0 
0 0 0 0 0 0 0 0 0 
0 0 0 0 0 0 0 0 0 
0 0 0 0 0 0 0 0 0 
0 0 0 0 0 0 0 0 0 
0 0 0 0 0 0 0 0 0 
0 0 0 0 0 0 0 0 0 
0 0 0 0 0 0 0 0 0 
0 0 0 0 0 0 0 0 0 
0 0 0 0 0 0 0 0 0 
0 0 0 0 0 0 0 0 0 
0 0 0 0 0 0 0 0 0 
0 0 0 0 0 0 0 0 0 
0 0 0 0 0 0 0 0 0 
0 0 0 0 0 0 0 0 0 
0 0 0 0 0 0 0 0 0 
0 0 0 0 0 0 0 0 0 
0 0 0 0 0 0 0 0 0 
0 0 0 0 0 0 0 0 0 
0 0 0 0 0 0 0 0 0 
0 0 0 0 0 0 0 0 0 
0 0 0 0 0 0 0 0 0 
0 0 0 0 0 0 0 0 0 
0 0 0 0 0 0 0 0 0 
0 0 0 0 0 0 0 0 0 
0 0 0 0 0 0 0 0 0 
0 0 0 0 0 0 0 0 0 
0 0 0 0 0 0 0 0 0 
0 0 0 0 0 0 0 0 0 
0 0 0 0 0 0 0 0 0 
0 0 0 0 0 0 0 0 0 
0 0 0 0 0 0 0 0 0 
0 0 0 0 0 0 0 0 0 
0 0 0 0 0 0 0 0 0 
0 0 0 0 0 0 0 0 0 
0 0 0 0 0 0 0 0 0 
0 0 0 0 0 0 0 0 0 
0 0 0 0 0 0 0 0 0 
0 0 0 0 0 0 0 0 0 
0 0 0 0 0 0 0 0 0 
0 0 0 0 0 0 0 0 0 
0 0 0 0 0 0 0 0 0 
0 0 0 0 0 0 0 0 0 
0 0 0 0 0 0 0 0 0 
0 0 0 0 0 0 0 0 0 
0 0 0 0 0 0 0 0 0 
0 0 0 0 0 0 0 0 0 
0 0 0 0 0 0 0 0 0 
0 0 0 0 0 0 0 0 0 
0 0 0 0 0 0 0 0 0 
0 0 0 0 0 0 0 0 0 
0 0 0 0 0 0 0 0 0 
0 0 0 0 0 0 0 0 0 
0 0 0 0 0 0 0 0 0 
0 0 0 0 0 0 0 0 0 
0 0 0 0 0 0 0 0 0 
0 0 0 0 0 0 0 0 0 
0 0 0 0 0 0 0 0 0 
0 0 0 0 0 0 0 0 0 
0 0 0 0 0 0 0 0 0 
0 0 0 0 0 0 0 0 0 
0 0 0 0 0 0 0 0 0 
0 0 0 0 0 0 0 0 0 
0 0 0 0 0 0 0 0 0 
0 0 0 0 0 0 0 0 0 
0 0 0 0 0 0 0 0 0 
0 0 0 0 0 0 0 0 0 
0 0 0 0 0 0 0 0 0 
0 0 0 0 0 0 0 0 0 
0 0 0 0 0 0 0 0 0 
0 0 0 0 0 0 0 0 0 
0 0 0 0 0 0 0 0 0 
0 0 0 0 0 0 0 0 0 
0 0 0 0 0 0 0 0 0 
0 0 0 0 0 0 0 0 0 
0 0 0 0 0 0 0 0 0 
0 0 0 0 0 0 0 0 0 
0 0 0 0 0 0 0 0 0 
0 0 0 0 0 0 0 0 0 
0 0 0 0 0 0 0 0 0 
0 0 0 0 0 0 0 0 0 
0 0 0 0 0 0 0 0 0 
0 0 0 0 0 0 0 0 0 
0 0 0 0 0 0 0 0 0 
0 0 0 0 0 0 0 0 0 
0 0 0 0 0 0 0 0 0 
0 0 0 0 0 0 0 0 0 
0 0 0 0 0 0 0 0 0 
0 0 0 0 0 0 0 0 0 
0 0 0 0 0 0 0 0 0 
0 0 0 0 0 0 0 0 0 
0 0 0 0 0 0 0 0 0 
0 0 0 0 0 0 0 0 0 
0 0 0 0 0 0 0 0 0 
0 0 0 0 0 0 0 0 0 
0 0 0 0 0 0 0 0 0 
0 0 0 0 0 0 0 0 0 
0 0 0 0 0 0 0 0 0 
0 0 0 0 0 0 0 0 0 
0 0 0 0 0 0 0 0 0 
0 0 0 0 0 0 0 0 0 
0 0 0 0 0 0 0 0 0 
0 0 0 0 0 0 0 0 0 
0 0 0 0 0 0 0 0 0 
0 0 0 0 0 0 0 0 0 
0 0 0 0 0 0 0 0 0 
0 0 0 0 0 0 0 0 0 
0 0 0 0 0 0 0 0 0 
0 0 0 0 0 0 0 0 0 
0 0 0 0 0 0 0 0 0 
0 0 0 0 0 0 0 0 0 
0 0 0 0 0 0 0 0 0 
0 0 0 0 0 0 0 0 0 
0 0 0 0 0 0 0 0 0 
0 0 0 0 0 0 0 0 0 
0 0 0 0 0 0 0 0 0 
0 0 0 0 0 0 0 0 0 
0 0 0 0 0 0 0 0 0 
0 0 0 0 0 0 0 0 0 
0 0 0 0 0 0 0 0 0 
0 0 0 0 0 0 0 0 0 
0 0 0 0 0 0 0 0 0 
0 0 0 0 0 0 0 0 0 
0 0 0 0 0 0 0 0 0 
0 0 0 0 0 0 0 0 0 
0 0 0 0 0 0 0 0 0 
0 0 0 0 0 0 0 0 0 
0 0 0 0 0 0 0 0 0 
0 0 0 0 0 0 0 0 0 
0 0 0 0 0 0 0 0 0 
0 0 0 0 0 0 0 0 0 
0 0 0 0 0 0 0 0 0 
0 0 0 0 0 0 0 0 0 
0 0 0 0 0 0 0 0 0 
0 0 0 0 0 0 0 0 0 
0 0 0 0 0 0 0 0 0 
0 0 0 0 0 0 0 0 0 
0 0 0 0 0 0 0 0 0 
0 0 0 0 0 0 0 0 0 
0 0 0 0 0 0 0 0 0 
0 0 0 0 0 0 0 0 0 
0 0 0 0 0 0 0 0 0 
0 0 0 0 0 0 0 0 0 
0 0 0 0 0 0 0 0 0 
0 0 0 0 0 0 0 0 0 
0 0 0 0 0 0 0 0 0 
0 0 0 0 0 0 0 0 0 
0 0 0 0 0 0 0 0 0 
0 0 0 0 0 0 0 0 0 
0 0 0 0 0 0 0 0 0 
0 0 0 0 0 0 0 0 0 
0 0 0 0 0 0 0 0 0 
0 0 0 0 0 0 0 0 0 
0 0 0 0 0 0 0 0 0 
0 0 0 0 0 0 0 0 0 
0 0 0 0 0 0 0 0 0 
0 0 0 0 0 0 0 0 0 
0 0 0 0 0 0 0 0 0 
0 0 0 0 0 0 0 0 0 
0 0 0 0 0 0 0 0 0 
0 0 0 0 0 0 0 0 0 
0 0 0 0 0 0 0 0 0 
0 0 0 0 0 0 0 0 0 
0 0 0 0 0 0 0 0 0 
0 0 0 0 0 0 0 0 0 
0 0 0 0 0 0 0 0 0 
0 0 0 0 0 0 0 0 0 
0 0 0 0 0 0 0 0 0 
0 0 0 0 0 0 0 0 0 
0 0 0 0 0 0 0 0 0 
0 0 0 0 0 0 0 0 0 
0 0 0 0 0 0 0 0 0 
0 0 0 0 0 0 0 0 0 
0 0 0 0 0 0 0 0 0 
0 0 0 0 0 0 0 0 0 
0 0 0 0 0 0 0 0 0 
0 0 0 0 0 0 0 0 0 
0 0 0 0 0 0 0 0 0 
0 0 0 0 0 0 0 0 0 
0 0 0 0 0 0 0 0 0 
0 0 0 0 0 0 0 0 0 
0 0 0 0 0 0 0 0 0 
0 0 0 0 0 0 0 0 0 
0 0 0 0 0 0 0 0 0 
0 0 0 0 0 0 0 0 0 
0 0 0 0 0 0 0 0 0 
0 0 0 0 0 0 0 0 0 
0 0 0 0 0 0 0 0 0 
0 0 0 0 0 0 0 0 0 
0 0 0 0 0 0 0 0 0 
0 0 0 0 0 0 0 0 0 
0 0 0 0 0 0 0 0 0 
0 0 0 0 0 0 0 0 0 
0 0 0 0 0 0 0 0 0 
0 0 0 0 0 0 0 0 0 
0 0 0 0 0 0 0 0 0 
0 0 0 0 0 0 0 0 0 
0 0 0 0 0 0 0 0 0 
0 0 0 0 0 0 0 0 0 
0 0 0 0 0 0 0 0 0 
0 0 0 0 0 0 0 0 0 
0 0 0 0 0 0 0 0 0 
0 0 0 0 0 0 0 0 0 
0 0 0 0 0 0 0 0 0 
0 0 0 0 0 0 0 0 0 
0 0 0 0 0 0 0 0 0 
0 0 0 0 0 0 0 0 0 
0 0 0 0 0 0 0 0 0 
0 0 0 0 0 0 0 0 0 
0 0 0 0 0 0 0 0 0 
0 0 0 0 0 0 0 0 0 
0 0 0 0 0 0 0 0 0 
0 0 0 0 0 0 0 0 0 
0 0 0 0 0 0 0 0 0 
0 0 0 0 0 0 0 0 0 
0 0 0 0 0 0 0 0 0 
0 0 0 0 0 0 0 0 0 
0 0 0 0 0 0 0 0 0 
0 0 0 0 0 0 0 0 0 
0 0 0 0 0 0 0 0 0 
0 0 0 0 0 0 0 0 0 
0 0 0 0 0 0 0 0 0 
0 0 0 0 0 0 0 0 0 
0 0 0 0 0 0 0 0 0 
0 0 0 0 0 0 0 0 0 
0 0 0 0 0 0 0 0 0 
0 0 0 0 0 0 0 0 0 
0 0 0 0 0 0 0 0 0 
0 0 0 0 0 0 0 0 0 
0 0 0 0 0 0 0 0 0 
0 0 0 0 0 0 0 0 0 
0 0 0 0 0 0 0 0 0 
0 0 0 0 0 0 0 0 0 
0 0 0 0 0 0 0 0 0 
0 0 0 0 0 0 0 0 0 
0 0 0 0 0 0 0 0 0 
0 0 0 0 0 0 0 0 0 
0 0 0 0 0 0 0 0 0 
0 0 0 0 0 0 0 0 0 
0 0 0 0 0 0 0 0 0 
0 0 0 0 0 0 0 0 0 
0 0 0 0 0 0 0 0 0 
0 0 0 0 0 0 0 0 0 
0 0 0 0 0 0 0 0 0 
0 0 0 0 0 0 0 0 0 
0 0 0 0 0 0 0 0 0 
0 0 0 0 0 0 0 0 0 
0 0 0 0 0 0 0 0 0 
0 0 0 0 0 0 0 0 0 
0 0 0 0 0 0 0 0 0 
0 0 0 0 0 0 0 0 0 
0 0 0 0 0 0 0 0 0 
0 0 0 0 0 0 0 0 0 
0 0 0 0 0 0 0 0 0 
0 0 0 0 0 0 0 0 0 
0 0 0 0 0 0 0 0 0 
0 0 0 0 0 0 0 0 0 
0 0 0 0 0 0 
METADATA
INFORMATION 0

POINT_DATA 17568
TEXTURE_COORDINATES TCoords 2 float
0.800375 0.667457 0.789584 0.668215 0.799923 0.663933 0.789057 0.664897 0.799923 
0.663933 0.789584 0.668215 0.811842 0.670848 0.80103 0.671718 0.811217 0.666381 
0.800375 0.667457 0.811217 0.666381 0.80103 0.671718 0.810346 0.655189 0.810548 
0.658683 0.799442 0.658809 0.799641 0.661178 0.799442 0.658809 0.810548 0.658683 
0.799923 0.663933 0.789057 0.664897 0.799641 0.661178 0.788653 0.662549 0.799641 
0.661178 0.789057 0.664897 0.821717 0.660492 0.821466 0.655998 0.832622 0.658487 
0.832389 0.653218 0.832622 0.658487 0.821466 0.655998 0.821251 0.651569 0.821466 
0.655998 0.810346 0.655189 0.810548 0.658683 0.810346 0.655189 0.821466 0.655998 
0.822539 0.669852 0.811842 0.670848 0.822041 0.665116 0.811217 0.666381 0.822041 
0.665116 0.811842 0.670848 0.832622 0.658487 0.832855 0.663756 0.821717 0.660492 
0.822041 0.665116 0.821717 0.660492 0.832855 0.663756 0.768389 0.668485 0.778915 
0.668524 0.769427 0.673433 0.779732 0.673035 0.769427 0.673433 0.778915 0.668524 
0.778165 0.664791 0.789057 0.664897 0.778915 0.668524 0.789584 0.668215 0.778915 
0.668524 0.789057 0.664897 0.74577 0.661865 0.756532 0.663039 0.747747 0.667793 
0.758027 0.6682 0.747747 0.667793 0.756532 0.663039 0.769427 0.673433 0.759367 
0.673605 0.768389 0.668485 0.758027 0.6682 0.768389 0.668485 0.759367 0.673605 
0.753496 0.653114 0.765177 0.656219 0.755019 0.658037 0.76625 0.660042 0.755019 
0.658037 0.765177 0.656219 0.743793 0.655937 0.755019 0.658037 0.74577 0.661865 
0.756532 0.663039 0.74577 0.661865 0.755019 0.658037 0.777492 0.661858 0.788653 
0.662549 0.778165 0.664791 0.789057 0.664897 0.778165 0.664791 0.788653 0.662549 
0.765177 0.656219 0.776857 0.659324 0.76625 0.660042 0.777492 0.661858 0.76625 
0.660042 0.776857 0.659324 0.860743 0.66105 0.85437 0.658994 0.861885 0.655612 
0.85471 0.654338 0.861885 0.655612 0.85437 0.658994 0.858253 0.665619 0.860743 
0.66105 0.86356 0.668573 0.867109 0.663417 0.86356 0.668573 0.860743 0.66105 
0.870052 0.650753 0.862482 0.650015 0.870421 0.644717 0.862589 0.644612 0.870421 
0.644717 0.862482 0.650015 0.85505 0.649682 0.862482 0.650015 0.85471 0.654338 
0.861885 0.655612 0.85471 0.654338 0.862482 0.650015 0.883125 0.662497 0.876218 
0.659429 0.885992 0.655087 0.877897 0.652301 0.885992 0.655087 0.876218 0.659429 
0.870421 0.644717 0.878895 0.645534 0.870052 0.650753 0.877897 0.652301 0.870052 
0.650753 0.878895 0.645534 0.86356 0.668573 0.867109 0.663417 0.869196 0.672347 
0.87346 0.666407 0.869196 0.672347 0.867109 0.663417 0.879453 0.669777 0.87346 
0.666407 0.883125 0.662497 0.876218 0.659429 0.883125 0.662497 0.87346 0.666407 
0.889305 0.677736 0.893116 0.683944 0.881403 0.682863 0.884277 0.688027 0.881403 
0.682863 0.893116 0.683944 0.896144 0.692562 0.893116 0.683944 0.90593 0.689794 
0.901798 0.679591 0.90593 0.689794 0.893116 0.683944 0.883125 0.662497 0.889995 
0.666526 0.879453 0.669777 0.884742 0.673283 0.879453 0.669777 0.889995 0.666526 
0.881403 0.682863 0.878268 0.679148 0.889305 0.677736 0.884742 0.673283 0.889305 
0.677736 0.878268 0.679148 0.902596 0.665971 0.89431 0.659538 0.908133 0.659549 
0.89794 0.652608 0.908133 0.659549 0.89431 0.659538 0.885992 0.655087 0.89431 
0.659538 0.883125 0.662497 0.889995 0.666526 0.883125 0.662497 0.89431 0.659538 
0.90593 0.689794 0.901798 0.679591 0.916609 0.686107 0.910596 0.674701 0.916609 
0.686107 0.901798 0.679591 0.908133 0.659549 0.918591 0.668435 0.902596 0.665971 
0.910596 0.674701 0.902596 0.665971 0.918591 0.668435 0.713434 0.678889 0.718232 
0.673865 0.719971 0.68226 0.723135 0.677582 0.719971 0.68226 0.718232 0.673865 
0.720227 0.663887 0.722594 0.669482 0.714094 0.668877 0.718232 0.673865 0.714094 
0.668877 0.722594 0.669482 0.690854 0.689174 0.699881 0.681004 0.701094 0.693026 
0.707762 0.685198 0.701094 0.693026 0.699881 0.681004 0.719971 0.68226 0.716169 
0.688193 0.713434 0.678889 0.707762 0.685198 0.713434 0.678889 0.716169 0.688193 
0.697269 0.662673 0.702107 0.668949 0.686646 0.668347 0.692886 0.67536 0.686646 
0.668347 0.702107 0.668949 0.6822 0.683174 0.692886 0.67536 0.690854 0.689174 
0.699881 0.681004 0.690854 0.689174 0.692886 0.67536 0.714094 0.668877 0.710252 
0.663404 0.720227 0.663887 0.717861 0.658291 0.720227 0.663887 0.710252 0.663404 
0.706788 0.657767 0.710252 0.663404 0.697269 0.662673 0.702107 0.668949 0.697269 
0.662673 0.710252 0.663404 0.86356 0.668573 0.858365 0.672357 0.858253 0.665619 
0.853611 0.668611 0.858253 0.665619 0.858365 0.672357 0.843559 0.666338 0.848795 
0.664994 0.847566 0.670615 0.853611 0.668611 0.847566 0.670615 0.848795 0.664994 
0.855227 0.679121 0.862995 0.676364 0.858343 0.683022 0.867102 0.680206 0.858343 
0.683022 0.862995 0.676364 0.869196 0.672347 0.862995 0.676364 0.86356 0.668573 
0.858365 0.672357 0.86356 0.668573 0.862995 0.676364 0.834415 0.678265 0.843484 
0.67676 0.836434 0.683129 0.846261 0.68128 0.836434 0.683129 0.843484 0.67676 
0.858343 0.683022 0.848914 0.685681 0.855227 0.679121 0.846261 0.68128 0.855227 
0.679121 0.848914 0.685681 0.847566 0.670615 0.840865 0.672225 0.843559 0.666338 
0.838324 0.667682 0.843559 0.666338 0.840865 0.672225 0.832962 0.673545 0.840865 
0.672225 0.834415 0.678265 0.843484 0.67676 0.834415 0.678265 0.840865 0.672225 
0.812703 0.675707 0.801925 0.676679 0.811842 0.670848 0.80103 0.671718 0.811842 
0.670848 0.801925 0.676679 0.791163 0.677558 0.801925 0.676679 0.792268 0.683394 
0.803066 0.682261 0.792268 0.683394 0.801925 0.676679 0.834415 0.678265 0.82446 
0.679693 0.832962 0.673545 0.823312 0.674685 0.832962 0.673545 0.82446 0.679693 
0.823312 0.674685 0.812703 0.675707 0.822539 0.669852 0.811842 0.670848 0.822539 
0.669852 0.812703 0.675707 0.815369 0.686723 0.826081 0.684957 0.817113 0.692704 
0.827981 0.690382 0.817113 0.692704 0.826081 0.684957 0.836434 0.683129 0.826081 
0.684957 0.834415 0.678265 0.82446 0.679693 0.834415 0.678265 0.826081 0.684957 
0.792268 0.683394 0.803066 0.682261 0.79352 0.689825 0.804461 0.688386 0.79352 
0.689825 0.803066 0.682261 0.817113 0.692704 0.806115 0.694921 0.815369 0.686723 
0.804461 0.688386 0.815369 0.686723 0.806115 0.694921 0.798864 0.71184 0.810186 
0.708981 0.801046 0.72017 0.812549 0.716812 0.801046 0.72017 0.810186 0.708981 
0.823667 0.712859 0.826337 0.721153 0.812549 0.716812 0.81509 0.725328 0.812549 
0.716812 0.826337 0.721153 0.819076 0.698906 0.808032 0.701735 0.817113 0.692704 
0.806115 0.694921 0.817113 0.692704 0.808032 0.701735 0.796857 0.704106 0.808032 
0.701735 0.798864 0.71184 0.810186 0.708981 0.798864 0.71184 0.808032 0.701735 
0.829963 0.69587 0.840668 0.692798 0.832092 0.701818 0.842717 0.698135 0.832092 
0.701818 0.840668 0.692798 0.817113 0.692704 0.827981 0.690382 0.819076 0.698906 
0.829963 0.69587 0.819076 0.698906 0.827981 0.690382 0.834432 0.708622 0.837107 
0.716573 0.823667 0.712859 0.826337 0.721153 0.823667 0.712859 0.837107 0.716573 
0.832092 0.701818 0.842717 0.698135 0.834432 0.708622 0.844937 0.704332 0.834432 
0.708622 0.842717 0.698135 0.867471 0.703655 0.86533 0.696176 0.877095 0.699305 
0.875007 0.692109 0.877095 0.699305 0.86533 0.696176 0.881403 0.682863 0.884277 
0.688027 0.872828 0.687102 0.875007 0.692109 0.872828 0.687102 0.884277 0.688027 
0.842717 0.698135 0.853212 0.694487 0.844937 0.704332 0.855272 0.700217 0.844937 
0.704332 0.853212 0.694487 0.86533 0.696176 0.867471 0.703655 0.855272 0.700217 
0.857607 0.707609 0.855272 0.700217 0.867471 0.703655 0.848914 0.685681 0.858343 
0.683022 0.851162 0.689863 0.861137 0.686828 0.851162 0.689863 0.858343 0.683022 